
FAST Summary File

Predictions were generated on 28-Feb-2023 at 17:43:08 using OpenFAST, compiled as a 64-bit application using double precision at commit v3.3.0-161-gaef318c7
  compiled with
    NWTC Subroutine Library
    ElastoDyn
    BeamDyn (unknown version, unknown date) [not called]
    InflowWind (unknown version, unknown date) [not called]
    AeroDyn14 (unknown version, unknown date) [not called]
    AeroDyn
    ServoDyn (unknown version, unknown date) [not called]
    HydroDyn (unknown version, unknown date) [not called]
    SubDyn (unknown version, unknown date) [not called]
    ExtPtfm_MCKF (unknown version, unknown date) [not called]
    MAP (unknown version, unknown date) [not called]
    FEAMooring (unknown version, unknown date) [not called]
    MoorDyn (unknown version, unknown date) [not called]
    OrcaFlexInterface (unknown version, unknown date) [not called]
    IceFloe (unknown version, unknown date) [not called]
    IceDyn (unknown version, unknown date) [not called]


Modeling a land-based turbine
Description from the FAST input file: 
  FAST Certification Test #18: NREL 5.0 MW Baseline Wind Turbine (Onshore)

Interpolation order for input/output time histories: 2 (quadratic)
Number of correction iterations:  0


   Requested Time Steps  
  -------------------------------------------------
  Component          Time Step (s)    Subcycles (-)
  -----------------  ---------------  -------------
  FAST (glue code)    2.000E-03
  ElastoDyn           2.000E-03              1
  AeroDyn             2.000E-03              1
  FAST output files   1.000E-01             50^-1


   Requested Channels in FAST Output File(s)  
  --------------------------------------------
  Number  Name                  Units                 Generated by
  ------  --------------------  --------------------  ------------
       1  Time                  (s)                   OpenFAST
       2  Wind1VelX             (m/s)                 OpenFOAM Integration
       3  Wind1VelY             (m/s)                 OpenFOAM Integration
       4  Wind1VelZ             (m/s)                 OpenFOAM Integration
       5  OoPDefl1              (m)                   ElastoDyn
       6  IPDefl1               (m)                   ElastoDyn
       7  TwstDefl1             (deg)                 ElastoDyn
       8  BldPitch1             (deg)                 ElastoDyn
       9  Azimuth               (deg)                 ElastoDyn
      10  RotSpeed              (rpm)                 ElastoDyn
      11  GenSpeed              (rpm)                 ElastoDyn
      12  TTDspFA               (m)                   ElastoDyn
      13  TTDspSS               (m)                   ElastoDyn
      14  TTDspTwst             (deg)                 ElastoDyn
      15  Spn2MLxb1             (kN-m)                ElastoDyn
      16  Spn2MLyb1             (kN-m)                ElastoDyn
      17  RootFxb1              (kN)                  ElastoDyn
      18  RootFyb1              (kN)                  ElastoDyn
      19  RootFzb1              (kN)                  ElastoDyn
      20  RootMxb1              (kN-m)                ElastoDyn
      21  RootMyb1              (kN-m)                ElastoDyn
      22  RootMzb1              (kN-m)                ElastoDyn
      23  RotTorq               (kN-m)                ElastoDyn
      24  LSSGagMya             (kN-m)                ElastoDyn
      25  LSSGagMza             (kN-m)                ElastoDyn
      26  YawBrFxp              (kN)                  ElastoDyn
      27  YawBrFyp              (kN)                  ElastoDyn
      28  YawBrFzp              (kN)                  ElastoDyn
      29  YawBrMxp              (kN-m)                ElastoDyn
      30  YawBrMyp              (kN-m)                ElastoDyn
      31  YawBrMzp              (kN-m)                ElastoDyn
      32  TwrBsFxt              (kN)                  ElastoDyn
      33  TwrBsFyt              (kN)                  ElastoDyn
      34  TwrBsFzt              (kN)                  ElastoDyn
      35  TwrBsMxt              (kN-m)                ElastoDyn
      36  TwrBsMyt              (kN-m)                ElastoDyn
      37  TwrBsMzt              (kN-m)                ElastoDyn
      38  AB1N001Fx             (N/m)                 AeroDyn
      39  AB1N002Fx             (N/m)                 AeroDyn
      40  AB1N003Fx             (N/m)                 AeroDyn
      41  AB1N004Fx             (N/m)                 AeroDyn
      42  AB1N005Fx             (N/m)                 AeroDyn
      43  AB1N006Fx             (N/m)                 AeroDyn
      44  AB1N007Fx             (N/m)                 AeroDyn
      45  AB1N008Fx             (N/m)                 AeroDyn
      46  AB1N009Fx             (N/m)                 AeroDyn
      47  AB1N010Fx             (N/m)                 AeroDyn
      48  AB1N011Fx             (N/m)                 AeroDyn
      49  AB1N012Fx             (N/m)                 AeroDyn
      50  AB1N013Fx             (N/m)                 AeroDyn
      51  AB1N014Fx             (N/m)                 AeroDyn
      52  AB1N015Fx             (N/m)                 AeroDyn
      53  AB1N016Fx             (N/m)                 AeroDyn
      54  AB1N017Fx             (N/m)                 AeroDyn
      55  AB1N018Fx             (N/m)                 AeroDyn
      56  AB1N019Fx             (N/m)                 AeroDyn
      57  AB1N020Fx             (N/m)                 AeroDyn
      58  AB1N021Fx             (N/m)                 AeroDyn
      59  AB1N022Fx             (N/m)                 AeroDyn
      60  AB1N023Fx             (N/m)                 AeroDyn
      61  AB1N024Fx             (N/m)                 AeroDyn
      62  AB1N025Fx             (N/m)                 AeroDyn
      63  AB1N026Fx             (N/m)                 AeroDyn
      64  AB1N027Fx             (N/m)                 AeroDyn
      65  AB1N028Fx             (N/m)                 AeroDyn
      66  AB1N029Fx             (N/m)                 AeroDyn
      67  AB1N030Fx             (N/m)                 AeroDyn
      68  AB1N031Fx             (N/m)                 AeroDyn
      69  AB1N032Fx             (N/m)                 AeroDyn
      70  AB1N033Fx             (N/m)                 AeroDyn
      71  AB1N034Fx             (N/m)                 AeroDyn
      72  AB1N035Fx             (N/m)                 AeroDyn
      73  AB1N036Fx             (N/m)                 AeroDyn
      74  AB1N037Fx             (N/m)                 AeroDyn
      75  AB1N038Fx             (N/m)                 AeroDyn
      76  AB1N039Fx             (N/m)                 AeroDyn
      77  AB1N040Fx             (N/m)                 AeroDyn
      78  AB1N041Fx             (N/m)                 AeroDyn
      79  AB1N042Fx             (N/m)                 AeroDyn
      80  AB1N043Fx             (N/m)                 AeroDyn
      81  AB1N044Fx             (N/m)                 AeroDyn
      82  AB1N045Fx             (N/m)                 AeroDyn
      83  AB1N046Fx             (N/m)                 AeroDyn
      84  AB1N047Fx             (N/m)                 AeroDyn
      85  AB1N048Fx             (N/m)                 AeroDyn
      86  AB1N049Fx             (N/m)                 AeroDyn
      87  AB1N050Fx             (N/m)                 AeroDyn
      88  AB1N051Fx             (N/m)                 AeroDyn
      89  AB1N052Fx             (N/m)                 AeroDyn
      90  AB1N053Fx             (N/m)                 AeroDyn
      91  AB1N054Fx             (N/m)                 AeroDyn
      92  AB1N055Fx             (N/m)                 AeroDyn
      93  AB1N056Fx             (N/m)                 AeroDyn
      94  AB1N057Fx             (N/m)                 AeroDyn
      95  AB1N058Fx             (N/m)                 AeroDyn
      96  AB1N059Fx             (N/m)                 AeroDyn
      97  AB1N060Fx             (N/m)                 AeroDyn
      98  AB1N061Fx             (N/m)                 AeroDyn
      99  AB1N062Fx             (N/m)                 AeroDyn
     100  AB1N063Fx             (N/m)                 AeroDyn
     101  AB1N064Fx             (N/m)                 AeroDyn
     102  AB1N065Fx             (N/m)                 AeroDyn
     103  AB1N066Fx             (N/m)                 AeroDyn
     104  AB1N067Fx             (N/m)                 AeroDyn
     105  AB1N068Fx             (N/m)                 AeroDyn
     106  AB1N069Fx             (N/m)                 AeroDyn
     107  AB1N070Fx             (N/m)                 AeroDyn
     108  AB1N071Fx             (N/m)                 AeroDyn
     109  AB1N072Fx             (N/m)                 AeroDyn
     110  AB1N073Fx             (N/m)                 AeroDyn
     111  AB1N074Fx             (N/m)                 AeroDyn
     112  AB1N075Fx             (N/m)                 AeroDyn
     113  AB1N076Fx             (N/m)                 AeroDyn
     114  AB1N077Fx             (N/m)                 AeroDyn
     115  AB1N078Fx             (N/m)                 AeroDyn
     116  AB1N079Fx             (N/m)                 AeroDyn
     117  AB1N080Fx             (N/m)                 AeroDyn
     118  AB1N081Fx             (N/m)                 AeroDyn
     119  AB1N082Fx             (N/m)                 AeroDyn
     120  AB1N083Fx             (N/m)                 AeroDyn
     121  AB1N084Fx             (N/m)                 AeroDyn
     122  AB1N085Fx             (N/m)                 AeroDyn
     123  AB1N086Fx             (N/m)                 AeroDyn
     124  AB1N087Fx             (N/m)                 AeroDyn
     125  AB1N088Fx             (N/m)                 AeroDyn
     126  AB1N089Fx             (N/m)                 AeroDyn
     127  AB1N090Fx             (N/m)                 AeroDyn
     128  AB1N091Fx             (N/m)                 AeroDyn
     129  AB1N092Fx             (N/m)                 AeroDyn
     130  AB1N093Fx             (N/m)                 AeroDyn
     131  AB1N094Fx             (N/m)                 AeroDyn
     132  AB1N095Fx             (N/m)                 AeroDyn
     133  AB1N096Fx             (N/m)                 AeroDyn
     134  AB1N097Fx             (N/m)                 AeroDyn
     135  AB1N098Fx             (N/m)                 AeroDyn
     136  AB1N099Fx             (N/m)                 AeroDyn
     137  AB1N100Fx             (N/m)                 AeroDyn
     138  AB1N101Fx             (N/m)                 AeroDyn
     139  AB1N102Fx             (N/m)                 AeroDyn
     140  AB1N103Fx             (N/m)                 AeroDyn
     141  AB1N104Fx             (N/m)                 AeroDyn
     142  AB1N105Fx             (N/m)                 AeroDyn
     143  AB1N106Fx             (N/m)                 AeroDyn
     144  AB1N107Fx             (N/m)                 AeroDyn
     145  AB1N108Fx             (N/m)                 AeroDyn
     146  AB1N109Fx             (N/m)                 AeroDyn
     147  AB1N110Fx             (N/m)                 AeroDyn
     148  AB1N111Fx             (N/m)                 AeroDyn
     149  AB1N112Fx             (N/m)                 AeroDyn
     150  AB1N113Fx             (N/m)                 AeroDyn
     151  AB1N114Fx             (N/m)                 AeroDyn
     152  AB1N115Fx             (N/m)                 AeroDyn
     153  AB1N116Fx             (N/m)                 AeroDyn
     154  AB1N117Fx             (N/m)                 AeroDyn
     155  AB1N118Fx             (N/m)                 AeroDyn
     156  AB1N119Fx             (N/m)                 AeroDyn
     157  AB1N120Fx             (N/m)                 AeroDyn
     158  AB1N121Fx             (N/m)                 AeroDyn
     159  AB1N122Fx             (N/m)                 AeroDyn
     160  AB1N123Fx             (N/m)                 AeroDyn
     161  AB1N124Fx             (N/m)                 AeroDyn
     162  AB1N125Fx             (N/m)                 AeroDyn
     163  AB1N126Fx             (N/m)                 AeroDyn
     164  AB1N127Fx             (N/m)                 AeroDyn
     165  AB1N128Fx             (N/m)                 AeroDyn
     166  AB1N129Fx             (N/m)                 AeroDyn
     167  AB1N130Fx             (N/m)                 AeroDyn
     168  AB1N131Fx             (N/m)                 AeroDyn
     169  AB1N132Fx             (N/m)                 AeroDyn
     170  AB1N133Fx             (N/m)                 AeroDyn
     171  AB1N134Fx             (N/m)                 AeroDyn
     172  AB1N135Fx             (N/m)                 AeroDyn
     173  AB1N136Fx             (N/m)                 AeroDyn
     174  AB1N137Fx             (N/m)                 AeroDyn
     175  AB1N138Fx             (N/m)                 AeroDyn
     176  AB1N139Fx             (N/m)                 AeroDyn
     177  AB1N140Fx             (N/m)                 AeroDyn
     178  AB1N141Fx             (N/m)                 AeroDyn
     179  AB1N142Fx             (N/m)                 AeroDyn
     180  AB1N143Fx             (N/m)                 AeroDyn
     181  AB1N144Fx             (N/m)                 AeroDyn
     182  AB1N145Fx             (N/m)                 AeroDyn
     183  AB1N146Fx             (N/m)                 AeroDyn
     184  AB1N147Fx             (N/m)                 AeroDyn
     185  AB1N148Fx             (N/m)                 AeroDyn
     186  AB1N149Fx             (N/m)                 AeroDyn
     187  AB1N150Fx             (N/m)                 AeroDyn
     188  AB1N151Fx             (N/m)                 AeroDyn
     189  AB1N152Fx             (N/m)                 AeroDyn
     190  AB1N153Fx             (N/m)                 AeroDyn
     191  AB1N154Fx             (N/m)                 AeroDyn
     192  AB1N155Fx             (N/m)                 AeroDyn
     193  AB1N156Fx             (N/m)                 AeroDyn
     194  AB1N157Fx             (N/m)                 AeroDyn
     195  AB1N158Fx             (N/m)                 AeroDyn
     196  AB1N159Fx             (N/m)                 AeroDyn
     197  AB1N160Fx             (N/m)                 AeroDyn
     198  AB1N161Fx             (N/m)                 AeroDyn
     199  AB1N162Fx             (N/m)                 AeroDyn
     200  AB1N163Fx             (N/m)                 AeroDyn
     201  AB1N164Fx             (N/m)                 AeroDyn
     202  AB1N165Fx             (N/m)                 AeroDyn
     203  AB1N166Fx             (N/m)                 AeroDyn
     204  AB1N167Fx             (N/m)                 AeroDyn
     205  AB1N168Fx             (N/m)                 AeroDyn
     206  AB1N169Fx             (N/m)                 AeroDyn
     207  AB1N170Fx             (N/m)                 AeroDyn
     208  AB1N171Fx             (N/m)                 AeroDyn
     209  AB1N172Fx             (N/m)                 AeroDyn
     210  AB1N173Fx             (N/m)                 AeroDyn
     211  AB1N174Fx             (N/m)                 AeroDyn
     212  AB1N175Fx             (N/m)                 AeroDyn
     213  AB1N176Fx             (N/m)                 AeroDyn
     214  AB1N177Fx             (N/m)                 AeroDyn
     215  AB1N178Fx             (N/m)                 AeroDyn
     216  AB1N179Fx             (N/m)                 AeroDyn
     217  AB1N180Fx             (N/m)                 AeroDyn
     218  AB1N181Fx             (N/m)                 AeroDyn
     219  AB1N182Fx             (N/m)                 AeroDyn
     220  AB1N183Fx             (N/m)                 AeroDyn
     221  AB1N184Fx             (N/m)                 AeroDyn
     222  AB1N185Fx             (N/m)                 AeroDyn
     223  AB1N186Fx             (N/m)                 AeroDyn
     224  AB1N187Fx             (N/m)                 AeroDyn
     225  AB1N188Fx             (N/m)                 AeroDyn
     226  AB1N189Fx             (N/m)                 AeroDyn
     227  AB1N190Fx             (N/m)                 AeroDyn
     228  AB1N191Fx             (N/m)                 AeroDyn
     229  AB1N192Fx             (N/m)                 AeroDyn
     230  AB1N193Fx             (N/m)                 AeroDyn
     231  AB1N194Fx             (N/m)                 AeroDyn
     232  AB1N195Fx             (N/m)                 AeroDyn
     233  AB1N196Fx             (N/m)                 AeroDyn
     234  AB1N197Fx             (N/m)                 AeroDyn
     235  AB1N198Fx             (N/m)                 AeroDyn
     236  AB1N199Fx             (N/m)                 AeroDyn
     237  AB1N200Fx             (N/m)                 AeroDyn
     238  AB1N201Fx             (N/m)                 AeroDyn
     239  AB1N202Fx             (N/m)                 AeroDyn
     240  AB1N203Fx             (N/m)                 AeroDyn
     241  AB1N204Fx             (N/m)                 AeroDyn
     242  AB1N205Fx             (N/m)                 AeroDyn
     243  AB1N206Fx             (N/m)                 AeroDyn
     244  AB1N207Fx             (N/m)                 AeroDyn
     245  AB1N208Fx             (N/m)                 AeroDyn
     246  AB1N209Fx             (N/m)                 AeroDyn
     247  AB1N210Fx             (N/m)                 AeroDyn
     248  AB1N211Fx             (N/m)                 AeroDyn
     249  AB1N212Fx             (N/m)                 AeroDyn
     250  AB1N213Fx             (N/m)                 AeroDyn
     251  AB1N214Fx             (N/m)                 AeroDyn
     252  AB1N215Fx             (N/m)                 AeroDyn
     253  AB1N216Fx             (N/m)                 AeroDyn
     254  AB1N217Fx             (N/m)                 AeroDyn
     255  AB1N218Fx             (N/m)                 AeroDyn
     256  AB1N219Fx             (N/m)                 AeroDyn
     257  AB1N220Fx             (N/m)                 AeroDyn
     258  AB1N221Fx             (N/m)                 AeroDyn
     259  AB1N222Fx             (N/m)                 AeroDyn
     260  AB1N223Fx             (N/m)                 AeroDyn
     261  AB1N224Fx             (N/m)                 AeroDyn
     262  AB1N225Fx             (N/m)                 AeroDyn
     263  AB1N226Fx             (N/m)                 AeroDyn
     264  AB1N227Fx             (N/m)                 AeroDyn
     265  AB1N228Fx             (N/m)                 AeroDyn
     266  AB1N229Fx             (N/m)                 AeroDyn
     267  AB1N230Fx             (N/m)                 AeroDyn
     268  AB1N231Fx             (N/m)                 AeroDyn
     269  AB1N232Fx             (N/m)                 AeroDyn
     270  AB1N233Fx             (N/m)                 AeroDyn
     271  AB1N234Fx             (N/m)                 AeroDyn
     272  AB1N235Fx             (N/m)                 AeroDyn
     273  AB1N236Fx             (N/m)                 AeroDyn
     274  AB1N237Fx             (N/m)                 AeroDyn
     275  AB1N238Fx             (N/m)                 AeroDyn
     276  AB1N239Fx             (N/m)                 AeroDyn
     277  AB1N240Fx             (N/m)                 AeroDyn
     278  AB1N241Fx             (N/m)                 AeroDyn
     279  AB1N242Fx             (N/m)                 AeroDyn
     280  AB1N243Fx             (N/m)                 AeroDyn
     281  AB1N244Fx             (N/m)                 AeroDyn
     282  AB1N245Fx             (N/m)                 AeroDyn
     283  AB1N246Fx             (N/m)                 AeroDyn
     284  AB1N247Fx             (N/m)                 AeroDyn
     285  AB1N248Fx             (N/m)                 AeroDyn
     286  AB1N249Fx             (N/m)                 AeroDyn
     287  AB1N250Fx             (N/m)                 AeroDyn
     288  AB1N251Fx             (N/m)                 AeroDyn
     289  AB1N252Fx             (N/m)                 AeroDyn
     290  AB1N253Fx             (N/m)                 AeroDyn
     291  AB1N254Fx             (N/m)                 AeroDyn
     292  AB1N255Fx             (N/m)                 AeroDyn
     293  AB1N256Fx             (N/m)                 AeroDyn
     294  AB1N257Fx             (N/m)                 AeroDyn
     295  AB1N258Fx             (N/m)                 AeroDyn
     296  AB1N259Fx             (N/m)                 AeroDyn
     297  AB1N260Fx             (N/m)                 AeroDyn
     298  AB1N261Fx             (N/m)                 AeroDyn
     299  AB1N262Fx             (N/m)                 AeroDyn
     300  AB1N263Fx             (N/m)                 AeroDyn
     301  AB1N264Fx             (N/m)                 AeroDyn
     302  AB1N265Fx             (N/m)                 AeroDyn
     303  AB1N266Fx             (N/m)                 AeroDyn
     304  AB1N267Fx             (N/m)                 AeroDyn
     305  AB1N268Fx             (N/m)                 AeroDyn
     306  AB1N269Fx             (N/m)                 AeroDyn
     307  AB1N270Fx             (N/m)                 AeroDyn
     308  AB1N271Fx             (N/m)                 AeroDyn
     309  AB1N272Fx             (N/m)                 AeroDyn
     310  AB1N273Fx             (N/m)                 AeroDyn
     311  AB1N274Fx             (N/m)                 AeroDyn
     312  AB1N275Fx             (N/m)                 AeroDyn
     313  AB1N276Fx             (N/m)                 AeroDyn
     314  AB1N277Fx             (N/m)                 AeroDyn
     315  AB1N278Fx             (N/m)                 AeroDyn
     316  AB1N279Fx             (N/m)                 AeroDyn
     317  AB1N280Fx             (N/m)                 AeroDyn
     318  AB1N281Fx             (N/m)                 AeroDyn
     319  AB1N282Fx             (N/m)                 AeroDyn
     320  AB1N283Fx             (N/m)                 AeroDyn
     321  AB1N284Fx             (N/m)                 AeroDyn
     322  AB1N285Fx             (N/m)                 AeroDyn
     323  AB1N286Fx             (N/m)                 AeroDyn
     324  AB1N287Fx             (N/m)                 AeroDyn
     325  AB1N288Fx             (N/m)                 AeroDyn
     326  AB1N289Fx             (N/m)                 AeroDyn
     327  AB1N290Fx             (N/m)                 AeroDyn
     328  AB1N291Fx             (N/m)                 AeroDyn
     329  AB1N292Fx             (N/m)                 AeroDyn
     330  AB1N293Fx             (N/m)                 AeroDyn
     331  AB1N294Fx             (N/m)                 AeroDyn
     332  AB1N295Fx             (N/m)                 AeroDyn
     333  AB1N296Fx             (N/m)                 AeroDyn
     334  AB1N297Fx             (N/m)                 AeroDyn
     335  AB1N298Fx             (N/m)                 AeroDyn
     336  AB1N299Fx             (N/m)                 AeroDyn
     337  AB1N300Fx             (N/m)                 AeroDyn
     338  AB1N001Ft             (N/m)                 AeroDyn
     339  AB1N002Ft             (N/m)                 AeroDyn
     340  AB1N003Ft             (N/m)                 AeroDyn
     341  AB1N004Ft             (N/m)                 AeroDyn
     342  AB1N005Ft             (N/m)                 AeroDyn
     343  AB1N006Ft             (N/m)                 AeroDyn
     344  AB1N007Ft             (N/m)                 AeroDyn
     345  AB1N008Ft             (N/m)                 AeroDyn
     346  AB1N009Ft             (N/m)                 AeroDyn
     347  AB1N010Ft             (N/m)                 AeroDyn
     348  AB1N011Ft             (N/m)                 AeroDyn
     349  AB1N012Ft             (N/m)                 AeroDyn
     350  AB1N013Ft             (N/m)                 AeroDyn
     351  AB1N014Ft             (N/m)                 AeroDyn
     352  AB1N015Ft             (N/m)                 AeroDyn
     353  AB1N016Ft             (N/m)                 AeroDyn
     354  AB1N017Ft             (N/m)                 AeroDyn
     355  AB1N018Ft             (N/m)                 AeroDyn
     356  AB1N019Ft             (N/m)                 AeroDyn
     357  AB1N020Ft             (N/m)                 AeroDyn
     358  AB1N021Ft             (N/m)                 AeroDyn
     359  AB1N022Ft             (N/m)                 AeroDyn
     360  AB1N023Ft             (N/m)                 AeroDyn
     361  AB1N024Ft             (N/m)                 AeroDyn
     362  AB1N025Ft             (N/m)                 AeroDyn
     363  AB1N026Ft             (N/m)                 AeroDyn
     364  AB1N027Ft             (N/m)                 AeroDyn
     365  AB1N028Ft             (N/m)                 AeroDyn
     366  AB1N029Ft             (N/m)                 AeroDyn
     367  AB1N030Ft             (N/m)                 AeroDyn
     368  AB1N031Ft             (N/m)                 AeroDyn
     369  AB1N032Ft             (N/m)                 AeroDyn
     370  AB1N033Ft             (N/m)                 AeroDyn
     371  AB1N034Ft             (N/m)                 AeroDyn
     372  AB1N035Ft             (N/m)                 AeroDyn
     373  AB1N036Ft             (N/m)                 AeroDyn
     374  AB1N037Ft             (N/m)                 AeroDyn
     375  AB1N038Ft             (N/m)                 AeroDyn
     376  AB1N039Ft             (N/m)                 AeroDyn
     377  AB1N040Ft             (N/m)                 AeroDyn
     378  AB1N041Ft             (N/m)                 AeroDyn
     379  AB1N042Ft             (N/m)                 AeroDyn
     380  AB1N043Ft             (N/m)                 AeroDyn
     381  AB1N044Ft             (N/m)                 AeroDyn
     382  AB1N045Ft             (N/m)                 AeroDyn
     383  AB1N046Ft             (N/m)                 AeroDyn
     384  AB1N047Ft             (N/m)                 AeroDyn
     385  AB1N048Ft             (N/m)                 AeroDyn
     386  AB1N049Ft             (N/m)                 AeroDyn
     387  AB1N050Ft             (N/m)                 AeroDyn
     388  AB1N051Ft             (N/m)                 AeroDyn
     389  AB1N052Ft             (N/m)                 AeroDyn
     390  AB1N053Ft             (N/m)                 AeroDyn
     391  AB1N054Ft             (N/m)                 AeroDyn
     392  AB1N055Ft             (N/m)                 AeroDyn
     393  AB1N056Ft             (N/m)                 AeroDyn
     394  AB1N057Ft             (N/m)                 AeroDyn
     395  AB1N058Ft             (N/m)                 AeroDyn
     396  AB1N059Ft             (N/m)                 AeroDyn
     397  AB1N060Ft             (N/m)                 AeroDyn
     398  AB1N061Ft             (N/m)                 AeroDyn
     399  AB1N062Ft             (N/m)                 AeroDyn
     400  AB1N063Ft             (N/m)                 AeroDyn
     401  AB1N064Ft             (N/m)                 AeroDyn
     402  AB1N065Ft             (N/m)                 AeroDyn
     403  AB1N066Ft             (N/m)                 AeroDyn
     404  AB1N067Ft             (N/m)                 AeroDyn
     405  AB1N068Ft             (N/m)                 AeroDyn
     406  AB1N069Ft             (N/m)                 AeroDyn
     407  AB1N070Ft             (N/m)                 AeroDyn
     408  AB1N071Ft             (N/m)                 AeroDyn
     409  AB1N072Ft             (N/m)                 AeroDyn
     410  AB1N073Ft             (N/m)                 AeroDyn
     411  AB1N074Ft             (N/m)                 AeroDyn
     412  AB1N075Ft             (N/m)                 AeroDyn
     413  AB1N076Ft             (N/m)                 AeroDyn
     414  AB1N077Ft             (N/m)                 AeroDyn
     415  AB1N078Ft             (N/m)                 AeroDyn
     416  AB1N079Ft             (N/m)                 AeroDyn
     417  AB1N080Ft             (N/m)                 AeroDyn
     418  AB1N081Ft             (N/m)                 AeroDyn
     419  AB1N082Ft             (N/m)                 AeroDyn
     420  AB1N083Ft             (N/m)                 AeroDyn
     421  AB1N084Ft             (N/m)                 AeroDyn
     422  AB1N085Ft             (N/m)                 AeroDyn
     423  AB1N086Ft             (N/m)                 AeroDyn
     424  AB1N087Ft             (N/m)                 AeroDyn
     425  AB1N088Ft             (N/m)                 AeroDyn
     426  AB1N089Ft             (N/m)                 AeroDyn
     427  AB1N090Ft             (N/m)                 AeroDyn
     428  AB1N091Ft             (N/m)                 AeroDyn
     429  AB1N092Ft             (N/m)                 AeroDyn
     430  AB1N093Ft             (N/m)                 AeroDyn
     431  AB1N094Ft             (N/m)                 AeroDyn
     432  AB1N095Ft             (N/m)                 AeroDyn
     433  AB1N096Ft             (N/m)                 AeroDyn
     434  AB1N097Ft             (N/m)                 AeroDyn
     435  AB1N098Ft             (N/m)                 AeroDyn
     436  AB1N099Ft             (N/m)                 AeroDyn
     437  AB1N100Ft             (N/m)                 AeroDyn
     438  AB1N101Ft             (N/m)                 AeroDyn
     439  AB1N102Ft             (N/m)                 AeroDyn
     440  AB1N103Ft             (N/m)                 AeroDyn
     441  AB1N104Ft             (N/m)                 AeroDyn
     442  AB1N105Ft             (N/m)                 AeroDyn
     443  AB1N106Ft             (N/m)                 AeroDyn
     444  AB1N107Ft             (N/m)                 AeroDyn
     445  AB1N108Ft             (N/m)                 AeroDyn
     446  AB1N109Ft             (N/m)                 AeroDyn
     447  AB1N110Ft             (N/m)                 AeroDyn
     448  AB1N111Ft             (N/m)                 AeroDyn
     449  AB1N112Ft             (N/m)                 AeroDyn
     450  AB1N113Ft             (N/m)                 AeroDyn
     451  AB1N114Ft             (N/m)                 AeroDyn
     452  AB1N115Ft             (N/m)                 AeroDyn